26
t-estilbeno MP2|cc-pVTZ Energy: -337161.2774034
H          0.78087       -1.31384       -0.00000
H         -2.65029        0.37362       -0.00000
H         -4.74424       -0.89889       -0.00000
H         -4.70969       -3.37838       -0.00000
H         -2.53404       -4.57298       -0.00000
C          3.78236        2.82234        0.00000
C          3.80010        1.42670        0.00000
C          2.61181        0.70715        0.00000
C          1.37222        1.36631        0.00000
C          1.37222        2.76912        0.00000
C          2.56116        3.49180        0.00000
C          0.09076        0.66809        0.00000
C         -0.09076       -0.66808       -0.00000
H          4.70968        3.37838        0.00000
H          4.74423        0.89889        0.00000
H          0.42380        3.29229        0.00000
H          2.53404        4.57298        0.00000
H         -0.78087        1.31384        0.00000
C         -1.37222       -1.36631       -0.00000
C         -1.37222       -2.76912       -0.00000
C         -2.56116       -3.49180       -0.00000
C         -3.78236       -2.82234       -0.00000
C         -3.80010       -1.42670       -0.00000
C         -2.61181       -0.70715       -0.00000
H         -0.42380       -3.29230       -0.00000
H          2.65030       -0.37362        0.00000
