36
	Energy: -434330.7986972
C          1.24873       -3.57064        0.00000
C          2.46793       -2.86677        0.00000
H          1.28817       -4.65543        0.00000
C         -0.00003       -2.95733        0.00000
H          3.38759       -3.44344        0.00000
C          2.56115       -1.47866        0.00000
C         -1.24875       -3.57064        0.00000
H         -0.00009       -1.87506        0.00000
C          3.71664       -0.70387        0.00000
C         -2.46789       -2.86677        0.00000
H          1.62381       -0.93764        0.00000
H         -1.28834       -4.65543        0.00000
C          3.71664        0.70387        0.00000
C         -2.56113       -1.47869        0.00000
H          4.67584       -1.21208        0.00000
H         -3.38761       -3.44335        0.00000
C          2.56114        1.47864        0.00000
C         -3.71666       -0.70390        0.00000
H          4.67589        1.21198        0.00000
H         -1.62393       -0.93744        0.00000
C          2.46790        2.86675        0.00000
C         -3.71663        0.70389        0.00000
H          1.62389        0.93745        0.00000
H         -4.67590       -1.21202        0.00000
C          1.24873        3.57067        0.00000
C         -2.56111        1.47869        0.00000
H          3.38764        3.44330        0.00000
H         -4.67581        1.21213        0.00000
C         -0.00002        2.95735        0.00000
C         -2.46789        2.86677        0.00000
H          1.28831        4.65546        0.00000
H         -1.62380        0.93761        0.00000
C         -1.24875        3.57064        0.00000
H          0.00012        1.87508        0.00000
H         -3.38755        3.44345        0.00000
H         -1.28823        4.65543        0.00000
