13
	Energy: -225566.5336402
C          0.00000        0.59475        0.00000
C          1.32910        0.17907        0.00000
C         -1.05226       -0.32146        0.00000
C         -0.75538       -1.67770        0.00000
C          0.57484       -2.10803        0.00000
C          1.61700       -1.18243        0.00000
N         -0.18697        2.02505        0.00000
O         -1.36151        2.37999        0.00000
H          2.10671        0.93074        0.00000
H         -2.06945        0.04297        0.00000
H         -1.55510       -2.40557        0.00000
H          0.79563       -3.16679        0.00000
H          2.64329       -1.52187        0.00000
